<?xml version="1.0" encoding="utf-8"?>
<VTKFile byte_order="LittleEndian" compressor="vtkZLibDataCompressor" header_type="UInt32" type="PolyData" version="0.1">
   <PolyData>
      <Piece NumberOfLines="152" NumberOfPoints="3092" NumberOfPolys="0" NumberOfStrips="0" NumberOfVerts="0">
         <PointData Scalars="MaximumInscribedSphereRadius" TCoords="TCoords">
            <DataArray Name="MaximumInscribedSphereRadius" RangeMax="0.20453249974" RangeMin="0.017231346976" format="ascii" type="Float64">
          1.1346 1.3124 1.4701 1.598 1.6904
          1.7464 1.7833 1.8382 1.8985 1.948 1.9961
          2.0361 2.0444 2.0355 2.0286 2.009 1.9531
          1.8835 1.8138 1.7692 1.76 1.7819 1.7751
          1.7571 1.7571 1.7325 1.6947 1.6536 1.5134
          1.5134 1.379 1.2965 1.2428 1.2205 1.2252
          1.2571 1.3258 1.3738 1.3557 1.3557 1.3365
          1.2432 1.0597 1.0128 1.0128 0.91895 0.83013
          0.78077 0.75857 0.71678 0.63745 0.54585 0.43739
          0.37486 0.38447 0.31365 1.1346 1.3128 1.4707
          1.5989 1.6912 1.7468 1.7838 1.8392 1.8997
          1.9488 1.9972 2.037 2.0442 2.0352 2.0284
          2.0075 1.9508 1.8808 1.8121 1.7683 1.7603
          1.783 1.7728 1.7545 1.7545 1.7305 1.693
          1.6476 1.5049 1.5049 1.3735 1.292 1.2404
          1.2203 1.2261 1.2624 1.3415 1.4561 1.4605
          1.4605 1.5752 1.4706 1.3453 1.3453 1.2885
          1.2993 1.3633 1.3554 1.3027 1.2681 1.2417
          1.2029 1.1682 1.1436 1.1518 1.1855 1.2109
          1.1784 1.132 1.1288 1.1523 1.1816 1.2165
          1.2668 1.3153 1.3378 1.3469 1.3299 1.3189
          1.3203 1.3292 1.3426 1.3629 1.3952 1.4249
          1.4382 1.4275 1.3912 1.3032 1.2385 1.1914
          1.1431 1.1106 1.1005 1.104 1.107 1.0874
          1.0748 1.1031 1.1487 1.1977 1.2388 1.2456
          1.1417 1.0386 0.97224 0.96802 0.96609 0.93491
          0.9335 0.96853 1.0533 1.1459 1.197 1.2358
          1.2472 1.2249 1.2006 1.2032 1.2154 1.2311
          1.2514 1.2628 1.2264 1.1946 1.1813 1.213
          1.263 1.3102 1.3685 1.4388 1.5027 1.5272
          1.4905 1.4164 1.363 1.363 1.358 1.3025
          1.2534 1.214 1.214 1.1943 1.1089 1.0045
          0.93966 0.91402 0.91765 0.94329 0.96642 0.95922
          0.93292 0.91776 0.91615 0.92177 0.93286 0.95184
          0.9759 0.99236 0.98266 0.98233 1.0047 1.0046
          0.95456 0.87819 0.7779 0.6803 0.61866 0.57833
          0.56132 0.60091 0.67657 0.70046 0.69377 0.70974
          0.72346 0.73512 0.73237 0.69971 0.66699 0.66945
          0.73883 0.83662 0.83772 0.83576 0.84155 0.83133
          0.80666 0.77508 0.7605 0.77059 0.82114 0.89229
          0.90864 0.89887 0.90517 0.89161 0.84327 0.81614
          0.81931 0.85554 0.90134 0.90319 0.77906 0.58104
          0.44598 0.38989 0.4413 0.51033 0.54626 0.51618
          0.44254 0.26819 1.1346 1.3123 1.4699 1.5979
          1.6902 1.7463 1.7832 1.838 1.8983 1.9478
          1.9959 2.036 2.0444 2.0355 2.0287 2.0093
          1.9535 1.8841 1.8141 1.7694 1.7599 1.7817
          1.7755 1.7577 1.7577 1.733 1.6951 1.6543
          1.5151 1.5151 1.3802 1.2974 1.2432 1.2207
          1.2251 1.258 1.3319 1.4449 1.5012 1.5012
          1.5692 1.486 1.3545 1.3239 1.3239 1.2933
          1.2965 1.3566 1.361 1.3063 1.2716 1.2459
          1.2076 1.1755 1.1438 1.1502 1.179 1.2105
          1.1866 1.1366 1.1269 1.1471 1.1775 1.2091
          1.2584 1.3072 1.3347 1.3463 1.3354 1.3185
          1.3179 1.3283 1.3396 1.3584 1.3888 1.4199
          1.4375 1.4298 1.4046 1.3179 1.2502 1.1986
          1.1521 1.115 1.1012 1.1008 1.106 1.0914
          1.0743 1.0933 1.1364 1.1893 1.2304 1.2505
          1.1708 1.0606 0.98491 0.96454 0.96587 0.94006
          0.92653 0.95279 1.0256 1.1253 1.1851 1.2252
          1.2466 1.2334 1.2034 1.2008 1.2108 1.2287
          1.2452 1.2641 1.2379 1.1998 1.1804 1.1998
          1.2455 1.2945 1.3487 1.4165 1.4855 1.5322
          1.5436 1.5239 1.495 1.495 1.473 1.4517
          1.418 1.418 1.374 1.3012 1.2389 1.2141
          1.2197 1.2389 1.2497 1.205 1.1829 1.1885
          1.2104 1.211 1.1563 1.089 1.0398 1.0185
          1.004 0.99754 0.98639 0.97827 0.94702 0.94657
          0.98889 1.0416 1.0421 1.0172 0.99933 1.0136
          1.0528 1.0832 1.0881 1.0946 1.1005 1.0886
          1.0455 1.0133 1.0016 1.011 1.0187 0.99615
          0.95729 0.90802 0.87906 0.87149 0.89394 0.91806
          0.94721 0.97918 1.0083 1.029 1.0388 1.0326
          1.0226 1.0072 1.02 1.0475 1.0955 1.137
          1.1248 1.0737 1.0526 1.045 1.047 1.0593
          1.0739 1.0642 1.0529 1.0506 1.0382 1.0332
          1.04 1.075 1.1319 1.1504 1.1393 1.1161
          1.0891 1.0609 1.0294 1.0158 1.0082 1.0263
          1.0721 1.1341 1.1743 1.2104 1.1995 1.1995
          1.1906 1.0374 0.82965 0.82965 0.671 0.62549
          0.66676 0.75473 0.77606 0.75044 0.71864 0.68485
          0.59648 0.49957 0.4757 0.5633 0.68114 0.73302
          0.71071 0.69107 0.64228 0.57786 0.53955 0.5475
          0.5944 0.62746 0.63717 0.60637 0.57654 0.58879
          0.62507 0.64793 0.67017 0.66344 0.64055 0.62156
          0.63384 0.65324 0.68309 0.69063 0.63322 0.55676
          0.49312 0.49719 0.55187 0.61825 0.67122 0.6852
          0.67447 0.66061 0.67177 0.69439 0.71967 0.71841
          0.68572 0.6307 0.59355 0.56995 0.52257 0.46198
          0.34216 1.1346 1.3124 1.47 1.5979 1.6903
          1.7463 1.7833 1.8381 1.8984 1.9479 1.9959
          2.036 2.0444 2.0355 2.0287 2.0092 1.9534
          1.8839 1.814 1.7694 1.7599 1.7818 1.7754
          1.7575 1.7575 1.7328 1.6949 1.6541 1.5145
          1.5145 1.3798 1.2971 1.2431 1.2206 1.2252
          1.2582 1.3324 1.4456 1.5017 1.5017 1.5696
          1.4851 1.3538 1.3234 1.3234 1.2931 1.2966
          1.357 1.3607 1.3061 1.2713 1.2456 1.2072
          1.1751 1.1436 1.1502 1.1794 1.2107 1.186
          1.1363 1.127 1.1474 1.1777 1.2096 1.2589
          1.3077 1.3349 1.3464 1.3351 1.3185 1.3181
          1.3284 1.3398 1.3587 1.3892 1.4201 1.4375
          1.4297 1.4038 1.3169 1.2495 1.1982 1.1516
          1.1146 1.1012 1.101 1.106 1.0912 1.0743
          1.0938 1.1371 1.1899 1.2309 1.2504 1.1693
          1.0595 0.98415 0.96475 0.96589 0.93961 0.92653
          0.95357 1.0271 1.127 1.1861 1.2257 1.2468
          1.2329 1.2032 1.2009 1.211 1.2286 1.2456
          1.2644 1.2373 1.1996 1.1805 1.2006 1.2466
          1.2953 1.3497 1.4179 1.4869 1.5328 1.5433
          1.5232 1.4947 1.4947 1.4723 1.4513 1.4171
          1.4171 1.3731 1.2993 1.2378 1.2141 1.2201
          1.2396 1.2489 1.2042 1.1828 1.1889 1.211
          1.2107 1.1546 1.0876 1.039 1.0185 1.0041
          0.99662 0.98615 0.97792 0.94628 0.94695 0.99024
          1.0417 1.0418 1.0168 0.9988 1.0142 1.0533
          1.0837 1.0887 1.0947 1.1004 1.0877 1.0441
          1.013 1.0016 1.0114 1.0185 0.99562 0.95618
          0.9071 0.87853 0.87163 0.89494 0.91821 0.94809
          0.98006 1.0092 1.0286 1.039 1.0324 1.0221
          1.0068 1.0208 1.0482 1.0968 1.1379 1.1225
          1.0727 1.0522 1.0451 1.0472 1.0599 1.074
          1.0635 1.053 1.0501 1.0376 1.0339 1.0408
          1.077 1.1326 1.1502 1.1389 1.1152 1.0883
          1.0598 1.0289 1.0149 1.0086 1.0275 1.0743
          1.136 1.1749 1.1903 1.1386 1.1386 1.1152
          1.0207 0.95987 0.95987 0.92641 0.87817 0.70093
          0.5337 0.43355 0.45187 0.53279 0.63285 0.6787
          0.67313 0.63192 0.57573 0.5558 0.54332 0.51202
          0.49919 0.53285 0.57361 0.60326 0.58147 0.56308
          0.53286 0.51975 0.52806 0.54366 0.56462 0.59298
          0.65386 0.72065 0.77909 0.77965 0.74482 0.66914
          0.58828 0.52199 0.47427 0.44331 0.44116 0.43138
          1.1346 1.3132 1.4714 1.6 1.6922 1.7473
          1.7843 1.8404 1.9011 1.9499 1.9985 2.0381
          2.0448 2.04 2.0264 1.9947 1.9452 1.8592
          1.7839 1.7424 1.7348 1.7447 1.7537 1.7439
          1.7439 1.7346 1.7188 1.6921 1.6686 1.6686
          1.6476 1.649 1.6744 1.7121 1.7288 1.7048
          1.6987 1.7115 1.7296 1.7376 1.7102 1.6742
          1.6524 1.6548 1.6915 1.7284 1.7358 1.7302
          1.7331 1.7589 1.7962 1.832 1.8351 1.7666
          1.6314 1.4419 1.3442 1.3442 1.2515 1.0527
          0.86311 0.82282 0.82282 0.70194 0.6076 0.60943
          0.6747 0.79251 0.89696 0.91011 0.8762 0.85532
          0.87197 0.92299 0.96113 0.96246 0.94696 0.91367
          0.89482 0.89517 0.86654 0.81926 0.774 0.72
          0.61564 0.58826 0.60229 0.6531 0.66688 0.66921
          0.71052 0.76015 0.80497 0.81445 0.75693 0.70793
          0.6994 0.71814 0.7279 0.73776 0.7609 0.78561
          0.78362 0.75712 0.72799 0.69956 0.65428 0.59111
          0.55593 0.56519 0.62528 0.63698 0.61087 0.58703
          0.57218 0.56208 0.52712 0.4711 0.36328 1.1346
          1.3128 1.4708 1.5991 1.6913 1.7469 1.7838
          1.8394 1.8998 1.9489 1.9973 2.0371 2.0451
          2.0401 2.0275 1.996 1.9477 1.8625 1.7863
          1.7438 1.7346 1.7444 1.7544 1.7453 1.7453
          1.7363 1.7206 1.694 1.6693 1.6693 1.6485
          1.6475 1.6723 1.7096 1.7305 1.7059 1.6981
          1.7105 1.7281 1.7394 1.7132 1.6772 1.6546
          1.6522 1.6878 1.7266 1.736 1.7308 1.7313
          1.7554 1.7918 1.8294 1.8353 1.8321 1.8342
          1.8342 1.8346 1.8489 1.8464 1.8159 1.7877
          1.7877 1.7596 1.6994 1.6257 1.556 1.556
          1.5438 1.4695 1.3884 1.3119 1.3119 1.1947
          1.0581 0.93065 0.8073 0.7231 0.67684 0.71668
          0.75997 0.7941 0.82009 0.8115 0.77849 0.7366
          0.71923 0.72902 0.73348 0.68067 0.61439 0.58561
          0.6021 0.6227 0.63609 0.64979 0.65228 0.63509
          0.59856 0.59301 0.60824 0.60819 0.57296 0.55588
          0.56127 0.58763 0.61963 0.63138 0.63881 0.64814
          0.63592 0.62864 0.58331 0.52085 0.49862 0.50317
          0.53364 0.5254 0.52424 0.54754 0.58686 0.61712
          0.60464 0.47221 1.1346 1.3125 1.4703 1.5983
          1.6906 1.7465 1.7835 1.8386 1.8989 1.9483
          1.9964 2.0364 2.0453 2.0402 2.028 1.997
          1.9496 1.865 1.7881 1.745 1.7344 1.7442
          1.7549 1.7464 1.7464 1.7376 1.7213 1.6955
          1.6698 1.6698 1.6494 1.6467 1.6708 1.7077
          1.7311 1.7072 1.6977 1.7095 1.727 1.7408
          1.7155 1.6795 1.6555 1.6503 1.685 1.7253
          1.7361 1.7313 1.7301 1.7525 1.7886 1.8258
          1.8356 1.8334 1.8333 1.8378 1.8378 1.8474
          1.8481 1.8229 1.7928 1.7928 1.7593 1.7309
          1.7256 1.7256 1.721 1.7156 1.6886 1.6571
          1.6571 1.5891 1.4904 1.3969 1.3529 1.3592
          1.3332 1.2519 1.1513 1.0829 1.0867 1.135
          1.1859 1.2705 1.3714 1.4682 1.446 1.3463
          1.2805 1.2472 1.2417 1.2525 1.1988 1.111
          1.0987 1.0987 1.0145 0.95356 0.94271 0.94271
          0.92101 0.90711 0.91467 0.87105 0.83619 0.85882
          0.92875 1.0075 1.0668 1.1073 1.1508 1.1954
          1.2007 1.1859 1.1678 1.1731 1.202 1.2031
          1.1763 1.1562 1.1527 1.1506 1.1531 1.1569
          1.1758 1.1848 1.18 1.1821 1.1696 1.1564
          1.1422 1.1183 1.0788 1.0623 1.0572 1.0685
          1.1 1.1156 1.1168 1.0976 1.0895 1.0849
          1.0898 1.0966 1.1023 1.1058 1.0954 1.0551
          1.004 0.97557 0.98516 1.0146 1.0251 1.0136
          1.0053 1.0165 1.0337 1.0434 1.0474 1.0346
          1.0394 1.0536 1.0596 1.0572 1.0414 1.0319
          1.033 1.019 0.9916 0.96373 0.95154 0.96891
          1.0103 1.0607 1.0965 1.0763 1.0333 1.0262
          1.0262 1.0257 1.024 1.0126 1.0126 0.95468
          0.89226 0.87866 0.89192 0.90751 0.89625 0.85561
          0.82343 0.81314 0.81986 0.82147 0.78004 0.68622
          0.61049 0.4973 0.32938 1.1346 1.313 1.4711
          1.5995 1.6917 1.7471 1.7841 1.8399 1.9004
          1.9494 1.9978 2.0376 2.045 2.04 2.027
          1.9954 1.9465 1.861 1.7852 1.7431 1.7347
          1.7445 1.754 1.7447 1.7447 1.7355 1.7198
          1.6931 1.669 1.669 1.6479 1.6481 1.6733
          1.7107 1.7298 1.7054 1.6984 1.711 1.7288
          1.7386 1.7118 1.6758 1.6537 1.6534 1.6895
          1.7274 1.7359 1.7305 1.7321 1.7569 1.7937
          1.8309 1.8351 1.8313 1.8347 1.8347 1.8353
          1.8495 1.8453 1.8189 1.8032 1.8032 1.7875
          1.7529 1.7278 1.724 1.724 1.7209 1.713
          1.6829 1.6471 1.6471 1.5724 1.4698 1.3832
          1.349 1.363 1.318 1.2323 1.132 1.0792
          1.0931 1.1475 1.2008 1.2915 1.3955 1.4812
          1.4226 1.3263 1.2663 1.2453 1.2451 1.2474
          1.179 1.1083 1.1083 1.0887 0.995 0.94267
          0.94267 0.91452 0.9076 0.90641 0.85742 0.836
          0.87479 0.95151 1.0253 1.0789 1.1197 1.1645
          1.2029 1.1998 1.1802 1.1663 1.1809 1.2061
          1.1977 1.164 1.154 1.1543 1.1485 1.1549
          1.1655 1.1833 1.1817 1.1791 1.18 1.1665
          1.1514 1.1366 1.1061 1.0723 1.0577 1.0568
          1.0812 1.1078 1.1196 1.1065 1.0931 1.0888
          1.0828 1.0948 1.0969 1.1059 1.105 1.0808
          1.0308 0.98797 0.97122 0.99884 1.0238 1.022
          1.0053 1.0074 1.0287 1.0372 1.0466 1.0398
          1.0359 1.046 1.0586 1.0587 1.0519 1.0413
          1.0355 1.0264 1.0103 0.97402 0.95665 0.95363
          0.98529 1.0311 1.0847 1.0912 1.0498 1.0156
          1.0181 1.0181 1.0252 1.0684 1.0542 1.0542
          1.0259 0.96342 0.948 0.96677 0.96908 0.98421
          0.98703 0.88368 0.78049 0.72537 0.72631 0.77191
          0.83275 0.87044 0.91987 0.96745 0.98534 0.99867
          1.0173 1.0119 0.94799 0.87896 0.82998 0.79066
          0.75462 0.72111 0.66277 0.64814 0.66123 0.5645
          1.1346 1.3128 1.4708 1.5991 1.6913 1.7469
          1.7838 1.8394 1.8999 1.949 1.9973 2.0372
          2.0451 2.0401 2.0275 1.996 1.9477 1.8624
          1.7863 1.7438 1.7346 1.7444 1.7544 1.7453
          1.7453 1.7363 1.7205 1.694 1.6693 1.6693
          1.6484 1.6475 1.6724 1.7096 1.7305 1.7059
          1.6981 1.7105 1.7281 1.7394 1.7132 1.6772
          1.6546 1.6522 1.6879 1.7266 1.736 1.7308
          1.7313 1.7554 1.7918 1.8295 1.8353 1.8321
          1.8342 1.8342 1.8346 1.8489 1.8464 1.8204
          1.805 1.805 1.7895 1.7552 1.7289 1.7245
          1.7245 1.7208 1.7143 1.685 1.6508 1.6508
          1.5787 1.4774 1.3882 1.3495 1.3622 1.3235
          1.2402 1.1373 1.0789 1.0905 1.1423 1.1951
          1.2838 1.3867 1.4781 1.4316 1.3326 1.2704
          1.2435 1.2409 1.2526 1.1942 1.1369 1.1369
          1.1146 1.0253 0.9544 0.9544 0.91282 0.88698
          0.86288 0.86251 0.90771 0.98649 1.109 1.2315
          1.3226 1.3306 1.3351 1.3629 1.4154 1.4809
          1.5267 1.5569 1.5628 1.5159 1.4679 1.4116
          1.345 1.2857 1.2533 1.248 1.2457 1.2216
          1.1854 1.1653 1.1724 1.2241 1.2864 1.3162
          1.3275 1.31 1.2991 1.2867 1.2791 1.2882
          1.3118 1.3412 1.3533 1.3465 1.3336 1.3242
          1.3116 1.2788 1.2382 1.1851 1.1658 1.1658
          1.1222 1.0616 1.0015 1.0015 0.97154 0.87909
          0.82965 0.79018 0.71505 0.6434 0.596 0.55956
          0.54604 0.53933 0.51664 0.50037 0.43992 0.39544
          0.40337 0.46761 0.46374 0.45166 0.39124 0.18073
          1.1346 1.3129 1.4709 1.5992 1.6914 1.747
          1.7839 1.8395 1.9 1.9491 1.9975 2.0373
          2.045 2.0401 2.0274 1.9958 1.9473 1.862
          1.7859 1.7436 1.7346 1.7445 1.7543 1.7451
          1.7451 1.736 1.7203 1.6937 1.6692 1.6692
          1.6483 1.6477 1.6727 1.71 1.7303 1.7057
          1.6982 1.7107 1.7283 1.7391 1.7128 1.6768
          1.6544 1.6526 1.6884 1.7269 1.736 1.7307
          1.7315 1.756 1.7924 1.8302 1.8352 1.8318
          1.8343 1.8343 1.8348 1.8491 1.846 1.8199
          1.8044 1.8044 1.7889 1.7545 1.7286 1.7243
          1.7243 1.7208 1.714 1.6843 1.6496 1.6496
          1.5768 1.475 1.3866 1.3491 1.3626 1.3217
          1.2379 1.1356 1.079 1.0913 1.1439 1.1967
          1.2862 1.3895 1.4791 1.4287 1.3305 1.2687
          1.2433 1.2413 1.2524 1.1919 1.1338 1.1338
          1.1121 1.0236 0.95315 0.95315 0.91175 0.88597
          0.86214 0.86343 0.90935 0.98985 1.1128 1.2356
          1.3236 1.3306 1.3354 1.3647 1.4175 1.4831
          1.5276 1.5577 1.562 1.5144 1.4663 1.4091
          1.3427 1.2839 1.2523 1.2483 1.2445 1.22
          1.1836 1.1642 1.1732 1.2269 1.2883 1.3167
          1.3273 1.3094 1.2988 1.2868 1.2788 1.2892
          1.3127 1.3418 1.3525 1.3456 1.3331 1.3244
          1.312 1.291 1.2891 1.3065 1.3065 1.3088
          1.3336 1.3407 1.3355 1.3355 1.3303 1.2809
          1.23 1.2095 1.2015 1.2033 1.2249 1.2384
          1.2359 1.2086 1.1698 1.1465 1.137 1.1427
          1.1372 1.1226 1.1114 1.1088 1.1094 1.1164
          1.148 1.1717 1.1857 1.1848 1.1797 1.177
          1.1877 1.2217 1.2607 1.2853 1.2914 1.2957
          1.2971 1.2936 1.2976 1.276 1.2555 1.2636
          1.2756 1.2737 1.2782 1.281 1.2671 1.2475
          1.2468 1.2672 1.2755 1.2777 1.2317 1.2317
          1.2093 1.0511 0.77972 0.73335 0.73335 0.59423
          0.49885 0.45024 0.39833 0.32969 1.1346 1.3127
          1.4706 1.5988 1.691 1.7467 1.7837 1.839
          1.8995 1.9487 1.997 2.0369 2.0452 2.0401
          2.0278 1.9964 1.9484 1.8635 1.787 1.7442
          1.7345 1.7443 1.7546 1.7458 1.7458 1.7368
          1.7211 1.6946 1.6695 1.6695 1.6488 1.6472
          1.6717 1.7088 1.7311 1.7064 1.698 1.7102
          1.7277 1.74 1.7141 1.6782 1.655 1.6514
          1.6868 1.7261 1.736 1.731 1.7307 1.7542
          1.7905 1.828 1.8354 1.8326 1.8338 1.8338
          1.8341 1.8485 1.8471 1.8214 1.8061 1.8061
          1.7908 1.7569 1.7297 1.7248 1.7248 1.7207
          1.7148 1.6865 1.6533 1.6533 1.5829 1.4827
          1.3917 1.3509 1.3609 1.3274 1.245 1.1418
          1.0788 1.0886 1.1393 1.1917 1.2784 1.3807
          1.4752 1.4377 1.3379 1.2745 1.2439 1.24
          1.2533 1.1992 1.1434 1.1434 1.12 1.029
          0.95767 0.95767 0.91564 0.88899 0.86448 0.8605
          0.90414 0.97978 1.1009 1.2225 1.3204 1.3307
          1.3345 1.359 1.4109 1.4762 1.5247 1.555
          1.5647 1.5201 1.4711 1.417 1.3503 1.2903
          1.2555 1.2474 1.2485 1.2261 1.1912 1.1678
          1.1706 1.218 1.2823 1.3151 1.3276 1.3122
          1.298 1.2864 1.2794 1.2861 1.3098 1.3388
          1.3549 1.3484 1.3345 1.3237 1.3149 1.2927
          1.287 1.3034 1.3034 1.3055 1.3304 1.339
          1.3361 1.3361 1.3332 1.2911 1.235 1.2112
          1.2028 1.2014 1.2211 1.234 1.2369 1.2162
          1.1743 1.1503 1.1358 1.142 1.1385 1.1246
          1.1121 1.1097 1.1096 1.1124 1.1408 1.1715
          1.1837 1.1872 1.1797 1.1774 1.1831 1.2151
          1.2527 1.2834 1.2897 1.2942 1.2968 1.2928
          1.2989 1.282 1.2585 1.2616 1.276 1.2732
          1.2763 1.2823 1.2715 1.2494 1.2463 1.2637
          1.302 1.3449 1.3758 1.3758 1.3883 1.3529
          1.2796 1.2558 1.2558 1.232 1.2098 1.2095
          1.2222 1.212 1.1949 1.1888 1.1794 1.1797
          1.1665 1.1316 1.1009 1.0601 1.0364 1.0127
          0.97377 0.9345 0.90317 0.88859 0.8874 0.84547
          0.85282 0.89189 0.90133 0.92337 0.94443 0.98367
          1.0175 1.0475 1.0498 1.0166 1.0166 0.99329
          0.91778 0.84504 0.81374 0.81374 0.71984 0.64823
          0.62907 0.60933 0.58072 0.51852 0.46736 0.36002
          0.17231 1.1346 1.3129 1.4708 1.5992 1.6914
          1.7469 1.7839 1.8395 1.9 1.9491 1.9975
          2.0373 2.0451 2.0401 2.0274 1.9959 1.9474
          1.8621 1.786 1.7436 1.7346 1.7444 1.7543
          1.7451 1.7451 1.7361 1.7204 1.6938 1.6692
          1.6692 1.6483 1.6476 1.6726 1.7099 1.7303
          1.7058 1.6982 1.7106 1.7283 1.7392 1.7129
          1.6769 1.6544 1.6525 1.6883 1.7268 1.736
          1.7307 1.7315 1.7559 1.7923 1.83 1.8353
          1.8319 1.8343 1.8343 1.8348 1.8491 1.8461
          1.82 1.8045 1.8045 1.789 1.7546 1.7286
          1.7243 1.7243 1.7208 1.7141 1.6844 1.6499
          1.6499 1.5772 1.4755 1.3869 1.3491 1.3626
          1.322 1.2384 1.1359 1.079 1.0912 1.1435
          1.1964 1.2857 1.3889 1.4789 1.4293 1.331
          1.2689 1.2434 1.2412 1.2524 1.1924 1.1345
          1.1345 1.1126 1.0239 0.95341 0.95341 0.91193
          0.88618 0.8623 0.86324 0.90901 0.98894 1.112
          1.2348 1.3234 1.3306 1.3354 1.3643 1.417
          1.4827 1.5274 1.5575 1.5622 1.5147 1.4666
          1.4096 1.3432 1.2842 1.2525 1.2482 1.2447
          1.2202 1.1838 1.1643 1.1731 1.2263 1.2879
          1.3166 1.3273 1.3095 1.2989 1.2868 1.2789
          1.289 1.3125 1.3416 1.3527 1.3458 1.3332
          1.3244 1.3121 1.2912 1.2889 1.3063 1.3063
          1.3086 1.3334 1.3406 1.3356 1.3356 1.3305
          1.2815 1.2303 1.2096 1.2016 1.2032 1.2247
          1.2381 1.236 1.2091 1.1701 1.1467 1.137
          1.1429 1.1373 1.1227 1.1114 1.1089 1.1094
          1.1161 1.1475 1.1716 1.1856 1.185 1.1797
          1.177 1.1874 1.2213 1.2602 1.2851 1.2914
          1.2956 1.2971 1.2936 1.2978 1.2764 1.2557
          1.2634 1.2756 1.2736 1.2781 1.2811 1.2677
          1.2476 1.2464 1.2706 1.3089 1.3524 1.3623
          1.3623 1.3976 1.3401 1.2658 1.2658 1.2249
          1.2084 1.2113 1.2203 1.2101 1.1933 1.1867
          1.1796 1.1804 1.1588 1.1264 1.0907 1.0562
          1.0329 1.0064 0.96594 0.93151 0.89555 0.89149
          0.8801 0.83708 0.85981 0.8974 0.90509 0.92916
          0.95015 0.99389 1.0262 1.0541 1.0706 1.0714
          1.0714 1.0762 1.01 0.9414 0.86628 0.86628
          0.8022 0.77442 0.75886 0.59887 1.1346 1.3126
          1.4705 1.5986 1.6909 1.7467 1.7836 1.8389
          1.8993 1.9485 1.9968 2.0367 2.0452 2.0402
          2.0279 1.9966 1.9489 1.864 1.7874 1.7445
          1.7344 1.7443 1.7547 1.746 1.746 1.7371
          1.7212 1.695 1.6696 1.6696 1.649 1.647
          1.6714 1.7084 1.7313 1.7067 1.6979 1.71
          1.7274 1.7403 1.7147 1.6787 1.6552 1.651
          1.6861 1.7258 1.736 1.7311 1.7304 1.7536
          1.7898 1.8272 1.8355 1.8329 1.8338 1.8384
          1.8384 1.8481 1.8475 1.822 1.7915 1.7915
          1.7578 1.7302 1.725 1.725 1.7207 1.7151
          1.6873 1.6547 1.6547 1.5852 1.4856 1.3936
          1.3516 1.3603 1.3296 1.2476 1.1453 1.0798
          1.0876 1.1377 1.1895 1.2755 1.3774 1.4726
          1.4408 1.341 1.2767 1.2442 1.2398 1.2536
          1.202 1.1469 1.1469 1.1228 1.0325 0.95993
          0.95993 0.91715 0.89001 0.86535 0.85995 0.90164
          0.97612 1.0965 1.2182 1.318 1.3306 1.3341
          1.3579 1.4086 1.4736 1.5236 1.5541 1.5657
          1.5225 1.4728 1.42 1.3539 1.2929 1.2567
          1.2471 1.25 1.2278 1.1936 1.1677 1.1696
          1.2147 1.2799 1.3145 1.3272 1.3131 1.2987
          1.2862 1.2795 1.2858 1.3087 1.3375 1.354
          1.3494 1.335 1.3238 1.3167 1.294 1.2863
          1.3021 1.3021 1.3041 1.3293 1.3387 1.3365
          1.3365 1.3342 1.2951 1.2369 1.2119 1.2033
          1.2007 1.2197 1.2324 1.2373 1.2194 1.1762
          1.1525 1.1353 1.1411 1.1387 1.1255 1.1139
          1.11 1.1101 1.1118 1.1382 1.1702 1.1822
          1.188 1.1797 1.1776 1.1817 1.2124 1.2498
          1.283 1.289 1.2936 1.2969 1.2925 1.298
          1.284 1.2596 1.2599 1.2762 1.2732 1.2756
          1.2827 1.2728 1.2503 1.2463 1.261 1.2988
          1.3415 1.3723 1.3723 1.3846 1.358 1.2856
          1.2602 1.2602 1.2348 1.2109 1.2094 1.221
          1.2127 1.1964 1.1902 1.1801 1.1799 1.1677
          1.1335 1.104 1.064 1.0383 1.016 0.97737
          0.93628 0.90595 0.88875 0.8905 0.84882 0.85003
          0.88956 0.90116 0.92045 0.94215 0.97969 1.0157
          1.0437 1.0746 1.103 1.103 1.1106 1.1433
          1.1309 1.1028 1.1028 1.1013 1.1131 1.0828
          1.064 1.0537 1.0535 1.0629 1.073 1.0679
          1.0742 1.0806 1.0828 1.0762 1.0741 1.0816
          1.0848 1.0767 1.0458 1.0139 0.97937 0.9505
          0.93045 0.91308 0.93693 0.95053 0.94463 0.9586
          0.99795 1.0382 1.0542 1.0645 1.0205 0.9846
          0.95642 0.89474 0.853 0.81803 0.7823 0.77598
          0.78718 0.78433 0.76526 0.76408 0.78965 0.84557
          0.90039 0.91339 0.90705 0.90943 0.91093 0.90839
          0.89439 0.8913 0.88936 0.88804 0.87818 0.87033
          0.85345 0.84374 0.84553 0.84794 0.86331 0.86887
          0.84631 0.8058 0.77568 0.79595 0.85365 0.92053
          0.9688 1.0095 1.0169 0.96689 0.90686 0.85578
          0.82806 0.82523 0.83912 0.84272 0.84388 0.86571
          0.86943 0.86967 0.87363 0.89923 0.91023 0.8916
          0.86076 0.85598 0.86212 0.85107 0.84117 0.79223
          0.79223 0.77611 0.60656 0.54035 0.54035 0.44103
          0.38791 0.41243 0.41356 0.38504 0.38556 0.39989
          0.3802 0.33694 0.33906 0.39412 0.34134 0.23327
          0.19419 0.26366 0.37625 0.45136 0.3494 1.1346
          1.3128 1.4707 1.5989 1.6912 1.7468 1.7838
          1.8392 1.8996 1.9488 1.9971 2.037 2.0451
          2.0401 2.0277 1.9962 1.9481 1.863 1.7867
          1.7441 1.7345 1.7444 1.7545 1.7456 1.7456
          1.7366 1.7209 1.6944 1.6694 1.6694 1.6487
          1.6473 1.672 1.7092 1.7308 1.7062 1.698
          1.7103 1.7278 1.7397 1.7137 1.6778 1.6548
          1.6518 1.6872 1.7263 1.736 1.7309 1.7309
          1.7547 1.7911 1.8286 1.8354 1.8324 1.834
          1.834 1.8343 1.8487 1.8468 1.821 1.8056
          1.8056 1.7903 1.7562 1.7294 1.7247 1.7247
          1.7207 1.7146 1.6858 1.6522 1.6522 1.5811
          1.4805 1.3902 1.3503 1.3614 1.3258 1.2429
          1.1394 1.0788 1.0894 1.1406 1.1931 1.2807
          1.3832 1.4769 1.4353 1.3354 1.2728 1.2437
          1.2404 1.253 1.1971 1.1407 1.1407 1.1177
          1.0274 0.95598 0.95598 0.91446 0.8882 0.8638
          0.86135 0.90565 0.98263 1.1044 1.2263 1.3213
          1.3306 1.3348 1.3606 1.4127 1.4782 1.5256
          1.5558 1.5639 1.5183 1.4697 1.4147 1.3479
          1.2884 1.2546 1.2477 1.2473 1.2242 1.1888
          1.1671 1.1713 1.2206 1.284 1.3156 1.3278
          1.3113 1.2982 1.2865 1.2793 1.2869 1.3106
          1.3399 1.3543 1.3476 1.3341 1.3239 1.314
          1.2922 1.2876 1.3043 1.3043 1.3064 1.3314
          1.3393 1.3358 1.3358 1.3323 1.2882 1.2335
          1.2107 1.2024 1.202 1.2222 1.2353 1.2366
          1.2137 1.1729 1.1492 1.1362 1.1426 1.1383
          1.1239 1.1119 1.1094 1.1095 1.1132 1.1429
          1.1712 1.1843 1.1865 1.1797 1.1773 1.1845
          1.2172 1.2551 1.2838 1.2902 1.2946 1.2968
          1.2931 1.2995 1.2803 1.2576 1.2622 1.2759
          1.2733 1.2769 1.2817 1.2705 1.2489 1.2464
          1.2659 1.3043 1.3472 1.3785 1.3785 1.3912
          1.3489 1.2753 1.2526 1.2526 1.2298 1.2093
          1.2097 1.2216 1.2114 1.194 1.1877 1.1788
          1.1796 1.1651 1.1302 1.0979 1.0586 1.035
          1.0101 0.97134 0.93357 0.9008 0.88949 0.88527
          0.84286 0.855 0.8937 0.9018 0.92564 0.94621
          0.98677 1.0201 1.0505 1.0809 1.1087 1.1087
          1.1167 1.1455 1.127 1.1 1.1 1.104
          1.1114 1.0772 1.0622 1.0522 1.0531 1.0656
          1.0722 1.0686 1.0785 1.0802 1.084 1.0754
          1.0739 1.0826 1.0848 1.0734 1.0392 1.0106
          0.97287 0.94501 0.92527 0.91838 0.9438 0.95009
          0.9414 0.96832 1.0093 1.0424 1.0581 1.0589
          1.0124 0.98111 0.9417 0.88333 0.84563 0.80688
          0.77885 0.77995 0.78703 0.78393 0.76414 0.76831
          0.79941 0.85921 0.90504 0.91245 0.90653 0.90906
          0.91134 0.90589 0.89302 0.88627 0.88946 0.88465
          0.87382 0.86818 0.84853 0.84488 0.84483 0.85008
          0.86216 0.86626 0.83753 0.79635 0.77821 0.80026
          0.86636 0.93489 0.98078 1.0155 1.0127 0.95385
          0.89301 0.84712 0.82523 0.82507 0.84241 0.84161
          0.84747 0.86623 0.87188 0.86784 0.8774 0.90367
          0.90586 0.88612 0.85751 0.85752 0.86237 0.84725
          0.85717 0.86483 0.86483 0.8723 0.82015 0.81232
          0.81232 0.78883 0.79637 0.83967 0.79793 0.70825
          0.66893 0.66493 0.66587 0.70223 0.72978 0.73426
          0.72178 0.72458 0.73722 0.76903 0.78779 0.75244
          0.7114 0.65377 0.51489 0.40204 0.3834 0.47692
          0.60972 0.72373 0.78275 0.79368 0.79442 0.78565
          0.67866 0.58842 0.58143 0.64393 0.70658 0.74486
          0.70371 0.59186 0.3871
</DataArray>
            <DataArray Name="EdgeArray" NumberOfComponents="2" RangeMax="204158.69829" RangeMin="1282.567737" format="ascii" type="Int32">
          72858 72858 71553 71553 72415 72420
          75765 69953 72950 73218 75948 75948
          72614 72614 47988 68724 74639 74639
          71143 71143 70588 69501 70479 70660
          72842 73650 69795 70404 71130 71994
          71912 72040 74873 74873 73122 72139
          73406 75938 73935 73937 74256 74256
          75586 75586 73375 73375 70999 70999
          70999 70999 67743 67743 71346 70954
          70026 70026 71418 71418 71418 71418
          71351 71431 65711 88135 125357 88467
          125124 125124 124960 125285 125361 125418
          125484 117719 89210 125905 94144 113022
          94144 113022 99375 99362 98686 98686
          86094 86094 86475 86278 86475 86278
          87236 86645 87291 87326 82997 82671
          86593 86786 87547 87509 86777 87393
          87104 87105 86678 86678 86928 86928
          87519 87519 76999 76999 72858 72858
          71553 71553 72415 72419 75765 70013
          73040 73274 75948 75946 72613 72613
          49218 68707 74850 74850 71143 71143
          70588 69460 70425 70557 72539 73122
          69611 70153 70745 71912 72137 72290
          74872 74872 73281 72139 71444 75938
          73237 73239 73638 73638 75899 76244
          73375 73375 70904 70917 70904 70917
          67676 67706 71111 70728 70243 71239
          71430 71430 71430 71430 71365 71252
          70392 96635 125565 106128 125116 125116
          125354 125355 125401 125456 125436 125497
          125575 125575 125558 125558 125558 125558
          125105 125104 86689 109494 115633 114218
          115633 114218 116133 111995 124414 124414
          116146 116146 114782 117777 106777 106777
          115809 118728 113624 112337 118242 119754
          122890 119924 122418 122418 120476 119812
          117720 117720 124060 124060 123855 118128
          114791 112721 114476 114504 118433 118433
          114757 114757 122632 122632 117059 121238
          116694 116694 118366 115845 116547 116255
          116195 116193 121744 117015 121729 121728
          119514 119514 121880 121880 115803 111337
          115322 115322 119518 119706 117855 112194