<?xml version="1.0" encoding="utf-8"?>
<VTKFile byte_order="LittleEndian" compressor="vtkZLibDataCompressor" header_type="UInt32" type="PolyData" version="0.1">
   <PolyData>
      <Piece NumberOfLines="46" NumberOfPoints="1489" NumberOfPolys="0" NumberOfStrips="0" NumberOfVerts="0">
         <PointData Scalars="MaximumInscribedSphereRadius" TCoords="TCoords">
            <DataArray Name="MaximumInscribedSphereRadius" RangeMax="0.18325208614" RangeMin="0.020971108212" format="ascii" type="Float64">
          1.3504 1.4034 1.3607 1.3054 1.2559
          1.2591 1.3254 1.4335 1.5148 1.6069 1.605
          1.605 1.6043 1.4527 1.2045 0.96583 0.96583
          0.77385 0.63536 0.57371 0.55377 0.59644 0.6547
          0.65718 0.62249 0.57453 0.5766 0.61308 0.67343
          0.71282 0.71662 0.7092 0.71627 0.73667 0.73396
          0.71276 0.67529 0.67621 0.71328 0.71239 0.67947
          0.62865 0.60243 0.61131 0.60877 0.59645 0.55268
          0.51856 0.53804 0.60222 0.62222 0.59746 0.59235
          0.62531 0.68034 0.68358 0.68383 0.65098 0.62019
          0.57254 0.55529 0.58821 0.59806 0.56979 0.55267
          0.45977 0.24686 1.3504 1.3657 1.3091 1.2397
          1.2031 1.2234 1.3021 1.4297 1.5714 1.7116
          1.7148 1.7148 1.791 1.8008 1.7981 1.7837
          1.7837 1.7692 1.7263 1.7041 1.691 1.6957
          1.7136 1.7271 1.725 1.7132 1.705 1.7179
          1.747 1.7914 1.8088 1.8056 1.8217 1.8285
          1.7835 1.7308 1.7159 1.7344 1.7566 1.7297
          1.6689 1.6227 1.5924 1.5763 1.5805 1.5953
          1.6191 1.6303 1.6071 1.599 1.6256 1.6761
          1.7032 1.7187 1.7328 1.7544 1.7702 1.783
          1.7892 1.7882 1.7843 1.7905 1.8032 1.8065
          1.7955 1.7787 1.7459 1.7285 1.72 1.72
          1.7171 1.6492 1.4878 1.2583 1.2049 1.2049
          1.0983 1.0063 0.96255 0.93948 0.91996 0.89846
          0.91154 0.94031 0.9989 1.0758 1.1354 1.1371
          1.1212 1.127 1.1311 1.127 1.1329 1.1379
          1.1355 1.134 1.1141 1.097 1.0838 1.0811
          1.104 1.1391 1.1553 1.117 1.0592 0.98576
          0.93242 0.88591 0.84072 0.82736 0.85425 0.89766
          0.93355 0.94194 0.95206 0.97481 0.96203 0.96242
          0.98151 0.99782 0.9749 0.92032 0.88491 0.87473
          0.85212 0.83098 0.85279 0.92003 0.94343 0.91491
          0.90747 0.93231 0.94832 0.93066 0.90724 0.89581
          0.88056 0.87611 0.86726 0.83913 0.83172 0.85685
          0.8572 0.79873 0.7523 0.71453 0.67409 0.61571
          0.56357 0.55355 0.55427 0.54079 0.55215 0.60206
          0.65636 0.66409 0.59812 0.53308 0.54465 0.60585
          0.61679 0.57401 0.51116 0.46158 0.47024 0.51254
          0.53023 0.53652 0.53239 0.56244 0.54572 0.33952
          1.3504 1.3658 1.3094 1.2401 1.2031 1.223
          1.3003 1.4269 1.5687 1.7084 1.7115 1.7115
          1.7905 1.8009 1.7983 1.7846 1.7846 1.7709
          1.7274 1.7049 1.6912 1.6951 1.7124 1.7266
          1.7252 1.7138 1.7051 1.7165 1.744 1.7883
          1.8099 1.8055 1.8213 1.8315 1.7884 1.7346
          1.7155 1.732 1.7568 1.7347 1.6742 1.6277
          1.5973 1.5767 1.5801 1.5924 1.6158 1.6315
          1.6095 1.5975 1.6201 1.6703 1.6999 1.7176
          1.7301 1.7513 1.7676 1.7823 1.7888 1.7892
          1.7843 1.7893 1.8016 1.8088 1.8 1.7819
          1.7433 1.7112 1.7006 1.7012 1.7012 1.7102
          1.7016 1.6697 1.6293 1.6293 1.5888 1.5388
          1.5182 1.5125 1.4932 1.467 1.4439 1.4358
          1.4457 1.4601 1.479 1.4986 1.5228 1.5417
          1.5253 1.4974 1.4802 1.4754 1.4679 1.4417
          1.4016 1.373 1.3632 1.3741 1.3855 1.3971
          1.4156 1.4495 1.467 1.4343 1.4094 1.3987
          1.3961 1.3917 1.3893 1.3815 1.3731 1.356
          1.349 1.3566 1.3804 1.4096 1.4212 1.4028
          1.3781 1.354 1.3357 1.3231 1.3227 1.3244
          1.3448 1.3717 1.3864 1.372 1.3446 1.3261
          1.3342 1.3585 1.3737 1.3657 1.3525 1.3422
          1.3647 1.4079 1.4357 1.4144 1.393 1.3806
          1.3719 1.3765 1.4021 1.3942 1.3942 1.3021
          1.1282 0.92839 0.92839 0.77256 0.67931 0.65192
          0.68028 0.69503 0.6275 0.51717 0.46138 0.46769
          0.48115 0.50913 0.52684 0.54705 0.57193 0.56804
          0.5702 0.59144 0.61804 0.46716 1.3504 1.3658
          1.3093 1.24 1.2031 1.2231 1.3007 1.4276
          1.5693 1.7092 1.7123 1.7123 1.7906 1.8009
          1.7982 1.7844 1.7844 1.7705 1.7271 1.7047
          1.6912 1.6953 1.7127 1.7269 1.7251 1.7136
          1.7051 1.7168 1.7447 1.7891 1.8096 1.8056
          1.8213 1.8308 1.7872 1.7337 1.7155 1.7325
          1.7571 1.7334 1.673 1.6265 1.5962 1.5765
          1.5803 1.5931 1.6166 1.6312 1.609 1.5979
          1.6211 1.6717 1.7007 1.7179 1.7308 1.7521
          1.7682 1.7824 1.7889 1.789 1.7842 1.7895
          1.802 1.8083 1.7999 1.7801 1.7414 1.7097
          1.7008 1.7015 1.7015 1.7101 1.7014 1.6661
          1.6261 1.6261 1.5862 1.5374 1.5179 1.5121
          1.4913 1.4661 1.443 1.436 1.4466 1.4609
          1.4792 1.4998 1.524 1.542 1.5232 1.4962
          1.4799 1.4751 1.4673 1.4399 1.3996 1.3719
          1.3631 1.375 1.3865 1.3987 1.4169 1.4514
          1.4647 1.4321 1.4086 1.3981 1.3962 1.3913
          1.3891 1.3812 1.3723 1.3549 1.3492 1.3579
          1.3819 1.4118 1.4208 1.4013 1.3767 1.3527
          1.3344 1.323 1.3225 1.3244 1.3463 1.3737
          1.3866 1.3714 1.3425 1.3252 1.3358 1.3603
          1.3737 1.3647 1.3505 1.3425 1.3674 1.4116
          1.4349 1.4112 1.3922 1.3793 1.3712 1.3784
          1.3657 1.3518 1.3518 1.3182 1.2663 1.2185
          1.2185 1.1793 1.1534 1.1201 1.0834 1.0648
          1.0798 1.1113 1.1548 1.1926 1.2253 1.2461
          1.2497 1.2356 1.2165 1.2002 1.2021 1.2164
          1.2318 1.2462 1.2594 1.2705 1.2556 1.2449
          1.2546 1.269 1.2659 1.2466 1.2169 1.2121
          1.2295 1.2492 1.2693 1.282 1.2918 1.299
          1.3026 1.3051 1.2795 1.25 1.2494 1.2735
          1.2913 1.2854 1.2742 1.2752 1.2835 1.3038
          1.3302 1.3475 1.3701 1.3934 1.3898 1.3768
          1.3584 1.3134 1.258 1.2452 1.274 1.3292
          1.3738 1.3769 1.3778 1.3746 1.3581 1.348
          1.3383 1.3166 1.2768 1.2279 1.1774 1.127
          1.1127 1.1557 1.2362 1.326 1.3472 1.3507
          1.3382 1.3318 1.3106 1.3059 1.309 1.3141
          1.332 1.3495 1.3746 1.3954 1.3946 1.3825
          1.3678 1.3514 1.3434 1.3567 1.3784 1.4092
          1.4193 1.4075 1.3858 1.3841 1.371 1.371
          1.3665 1.3336 1.3311 1.327 1.327 1.3228
          1.2819 1.2395 1.2222 1.2103 1.1986 1.1847
          1.177 1.1549 1.1432 1.1471 1.1498 1.1234
          1.1025 1.0891 1.0966 1.0972 1.0605 1.0353
          1.0361 1.0607 1.0515 1.0333 1.0304 1.0189
          0.98175 0.96366 0.93877 0.93514 0.95633 0.98017
          1.0093 1.0189 1.029 1.001 0.96454 0.93942
          0.89656 0.8764 0.87694 0.885 0.8939 0.89117
          0.84872 0.77746 0.70883 0.68329 0.68964 0.72061
          0.77033 0.80372 0.83139 0.83019 0.79514 0.75536
          0.67649 0.61002 0.56027 0.53093 0.54787 0.54667
          0.53793 0.5313 0.49789 0.43358 0.39188 0.43913
          0.51578 0.56521 0.62074 0.66334 0.69017 0.67377
          0.57035 0.47038 0.45203 0.52971 0.58745 0.61286
          0.628 0.60665 0.57965 0.53655 0.52269 0.53301
          0.54778 0.52544 0.46847 0.41992 0.32745 0.26015
          0.20971 1.3504 1.3659 1.3095 1.2402 1.2031
          1.2228 1.2997 1.426 1.5677 1.7073 1.7104
          1.7104 1.7904 1.801 1.7984 1.7849 1.7849
          1.7715 1.7278 1.7051 1.6913 1.6949 1.712
          1.7262 1.7252 1.714 1.7052 1.716 1.743
          1.7873 1.8102 1.8054 1.8213 1.8325 1.79
          1.7359 1.7156 1.7311 1.7562 1.7365 1.6761
          1.6294 1.599 1.5771 1.5798 1.5914 1.6147
          1.6316 1.6104 1.597 1.6189 1.6683 1.6988
          1.7173 1.7292 1.7504 1.7667 1.7822 1.7886
          1.7889 1.7845 1.7889 1.801 1.8088 1.8002
          1.7849 1.7457 1.7133 1.7002 1.7055 1.7055
          1.7097 1.7019 1.6751 1.5927 1.5927 1.5407
          1.5185 1.513 1.4961 1.4688 1.4453 1.4359
          1.4442 1.4589 1.4783 1.497 1.521 1.5407
          1.5285 1.4993 1.4809 1.4759 1.4697 1.4444
          1.4046 1.3738 1.3633 1.3728 1.384 1.3948
          1.4137 1.4468 1.4676 1.4375 1.4106 1.3996
          1.3954 1.3923 1.3893 1.3826 1.3737 1.3575
          1.3487 1.3547 1.3783 1.4063 1.4217 1.4048
          1.3806 1.3557 1.3375 1.3239 1.3229 1.324
          1.3426 1.3686 1.3863 1.3729 1.348 1.3276
          1.3319 1.3557 1.3735 1.3679 1.3547 1.3419
          1.3609 1.4026 1.4359 1.4174 1.3942 1.3825
          1.3731 1.3746 1.3729 1.3421 1.3421 1.3247
          1.2782 1.229 1.2146 1.2146 1.1859 1.1598
          1.126 1.0893 1.0682 1.0741 1.102 1.1457
          1.1878 1.2203 1.2429 1.2511 1.2416 1.222
          1.2028 1.201 1.2129 1.2282 1.2446 1.2544
          1.2685 1.2605 1.2456 1.2519 1.2664 1.27
          1.2506 1.2223 1.2108 1.2247 1.243 1.2654
          1.28 1.2889 1.2993 1.3015 1.3052 1.2903
          1.2595 1.2484 1.2673 1.287 1.2894 1.276
          1.2757 1.2805 1.2949 1.3257 1.3413 1.362
          1.3873 1.3941 1.3801 1.366 1.3352 1.2731
          1.244 1.2605 1.309 1.364 1.3774 1.3758
          1.3791 1.3629 1.3499 1.3418 1.3256 1.2935
          1.2436 1.1921 1.1405 1.1117 1.1343 1.2067
          1.3019 1.3445 1.3527 1.3417 1.3372 1.318
          1.3078 1.3092 1.3107 1.327 1.3396 1.3648
          1.3919 1.3955 1.3846 1.3748 1.3554 1.3445
          1.3481 1.3696 1.3973 1.4191 1.4181 1.3908
          1.3748 1.368 1.3669 1.3669 1.3637 1.3624
          1.3061 1.3061 1.1699 1.0669 1.0344 1.0464
          1.0694 1.0816 1.0925 1.1036 1.0988 1.0712
          1.0352 0.97194 0.93179 0.92867 0.93137 0.95016
          0.9889 1.0285 1.0399 1.034 1.0352 1.0316
          1.0283 1.0156 1.0035 0.99698 1.0111 1.0514
          1.0861 1.1162 1.1075 1.037 1.0047 1.013
          1.0117 1.0037 0.9849 0.96811 0.98016 0.99997
          1.02 1.0255 1.0078 0.99555 1.0155 1.0299
          1.0289 1.0116 0.99339 0.98651 0.97444 0.95733
          0.93271 0.91028 0.92417 0.97186 1.006 1.0461
          1.0479 0.99849 0.95338 0.95007 0.99349 1.0296
          1.0238 0.99536 0.97709 0.98527 1.0191 0.97905
          0.97905 0.96583 0.84383 0.73959 0.73959 0.70485
          0.62033 0.61643 0.62878 0.65457 0.67199 0.61328
          0.3508 1.3504 1.3658 1.3093 1.24 1.2031
          1.2231 1.3008 1.4277 1.5694 1.7093 1.7124
          1.7124 1.7906 1.8009 1.7982 1.7844 1.7844
          1.7705 1.7271 1.7047 1.6912 1.6953 1.7127
          1.7269 1.7251 1.7136 1.7051 1.7169 1.7448
          1.7892 1.8096 1.8056 1.8213 1.8307 1.7871
          1.7336 1.7155 1.7326 1.7571 1.7333 1.6728
          1.6264 1.596 1.5765 1.5803 1.5932 1.6167
          1.6312 1.6089 1.5979 1.6213 1.6718 1.7008
          1.7179 1.7308 1.7522 1.7683 1.7824 1.7889
          1.7889 1.7841 1.7896 1.802 1.8081 1.7998
          1.7799 1.7412 1.7096 1.7009 1.7015 1.7015
          1.7101 1.7014 1.6656 1.6257 1.6257 1.5859
          1.5373 1.5179 1.5121 1.491 1.466 1.4428
          1.436 1.4467 1.461 1.4793 1.4999 1.5241
          1.542 1.523 1.496 1.4798 1.475 1.4672
          1.4396 1.3993 1.3717 1.3631 1.3751 1.3866
          1.3989 1.4171 1.4517 1.4644 1.4318 1.4085
          1.398 1.3962 1.3913 1.3891 1.3812 1.3721
          1.3548 1.3492 1.358 1.3821 1.4121 1.4207
          1.4012 1.3765 1.3525 1.3343 1.323 1.3225
          1.3244 1.3465 1.374 1.3866 1.3713 1.3422
          1.3252 1.336 1.3606 1.3737 1.3646 1.3502
          1.3425 1.3677 1.4121 1.4348 1.4107 1.3921
          1.3791 1.3711 1.3785 1.365 1.3512 1.3512
          1.318 1.2656 1.2179 1.2179 1.1788 1.153
          1.1198 1.0832 1.0649 1.0798 1.1118 1.1552
          1.1928 1.2257 1.2462 1.2496 1.2354 1.2162
          1.2001 1.2022 1.2167 1.232 1.2463 1.2594
          1.2702 1.2554 1.2448 1.2548 1.2691 1.2659
          1.246 1.2167 1.2122 1.2299 1.2495 1.2695
          1.2821 1.292 1.299 1.3027 1.3051 1.2789
          1.2497 1.2496 1.2738 1.2912 1.2852 1.2741
          1.2752 1.2836 1.3042 1.3304 1.3478 1.3705
          1.3935 1.3899 1.3767 1.3579 1.3123 1.2572
          1.2453 1.2747 1.33 1.3743 1.3769 1.3779
          1.3743 1.3579 1.3479 1.3382 1.3161 1.2759
          1.2268 1.1765 1.1264 1.1129 1.1569 1.2377
          1.3267 1.3474 1.3501 1.3382 1.3316 1.3103
          1.3062 1.3087 1.3144 1.3322 1.3497 1.3749
          1.3955 1.3946 1.3821 1.3675 1.3513 1.3437
          1.3572 1.3791 1.4098 1.4196 1.4103 1.3834
          1.3682 1.3666 1.3666 1.366 1.3606 1.3545
          1.3042 1.3042 1.2539 1.1238 1.0461 1.0337
          1.056 1.0746 1.0869 1.097 1.1083 1.0908
          1.058 1.0089 0.95079 0.92892 0.93157 0.94181
          0.96159 1.0094 1.0377 1.0404 1.0355 1.0381
          1.0306 1.0272 1.0171 1.0018 0.99834 1.0242
          1.0704 1.1019 1.1196 1.0776 1.0186 1.0038
          1.0146 1.0106 0.99694 0.97195 0.97274 0.98687
          1.0072 1.0246 1.02 0.99822 1.0021 1.0238
          1.034 1.0202 1.0023 0.98873 0.97888 0.96929
          0.94707 0.91832 0.9116 0.94641 0.98711 1.0265
          1.0499 1.0285 0.96862 0.94434 0.96686 1.0163
          1.0329 1.0089 0.98174 0.98239 1.0157 1.0746
          1.0795 1.0795 1.1078 1.0525 1.0154 1.0154
          0.94122 0.84255 0.76629 0.72873 0.75325 0.79951
          0.82021 0.76281 0.65145 0.60101 0.61113 0.66517
          0.73821 0.79735 0.78731 0.7568 0.76678 0.78801
          0.79154 0.76331 0.70515 0.64803 0.64139 0.72385
          0.75827 0.67048 0.52983 0.47018 0.49993 0.51751
          0.4914 0.46932 0.44903 0.43531 0.46127 0.43939
          0.42308 0.43563 0.4529 0.51102 0.53954 0.44502
          0.29979 0.25697 0.30781 0.34568 0.35537 0.41426
          0.51838 0.32587
</DataArray>
            <DataArray Name="EdgeArray" NumberOfComponents="2" RangeMax="137304.58056" RangeMin="1807.5862358" format="ascii" type="Int32">
          2790 2790 1485 3672 2504 2400
          4200 3648 2183 1573 1811 2338
          1377 1377 2488 2488 1368 1368
          2575 3352 2044 2156 2044 2156
          1837 1689 2723 3373 10200 11740
          32426 32499 32426 32499 32051 10891
          28796 28796 34539 34248 34903 34893
          31114 31114 13693 13693 33661 34848
          32355 32804 34931 33052 35069 33778
          35320 35165 33090 33090 35352 35378
          31975 33001 31984 31989 33167 33167
          32230 34741 34107 34107 35105 35105
          34250 34250 31738 31738 32681 32681
          35206 35147 33820 33097 35119 35121
          32508 32508 32572 32572 33382 33382
          33070 32811 34029 33021 32678 32678
          32540 33889 33588 32762 33305 33307
          34597 33479 34909 34908 33536 33536
          32904 33185 18461 31851 33701 33701
          33972 33321 33991 33730 32992 33002
          33095 31546 33970 10131 34498 31759
          32905 34093 34890 34890 34524 34524
          5197 5197 2790 2790 2045 1866
          1923 1923 1677 3379 2342 2044
          2473 2473 1591 2181 2240 3200
          3425 2350 2406 2058 2359 2027
          2359 2027 1258 1298 1266 4535
          1380 1369 2534 2528 2534 2528
          3687 3687 19871 19871 26182 26182
          24293 24293 27718 30749 23830 23830
          19620 19620 25680 21667 27625 27625
          22516 26064 27765 27767 29901 29140
          27250 27250 25225 24194 21650 31254
          23849 22996 23101 23757 22841 22841
          27875 26653 26770 27992 29240 29240
          21861 21861 27320 26827 28871 27280
          22877 24266 19697 20312 19172 19172
          23130 23130 22968 22968 26861 18452
          26555 27471 18258 18258 29182 29335
          26092 25043 22571 22571 21527 21527
          27398 27398 21450 21450 25194 27242
          21696 21696 21420 18844 25453 26583
          28705 28705 28556 28556 28001 28001
          20763 20763 24954 24954 19274 24957
          19059 22889 29790 29785 29857 27186
          28567 26909 28567 26909 28133 26816
          22045 22857 22789 4526 16161 10063
          14146 10081 14146 10081 10117 10117
          11899 11899 15195 14932 16915 16913
          12706 14800 10451 10451 11356 11356
          10805 10704 9729 9184 16797 10566
          13670 13667 14204 14540 13365 13365
          14262 14587 14721 14721 15623 15623
          10614 5849 11623 14366 12188 12861
          12506 12506 9847 9513 12877 15346
          14256 14255 5891 5892 12753 12753
          10859 10859 7921 7921 13272 12280
          8309 8309 11117 9146 16439 17545
          9159 9633 8350 8594 2686 4343
          13896 12232 13028 5950 9154 9154
          11475 11475 9062 9062 12016 9856
          15399 15399 11385 11385 15093 15093
          9725 9725 8268 11328 15789 14621
          17336 17337 16680 16680 7106 8782
          13389 13389 9436 10600 8858 8084
          8132 6728 6615 7781 8181 9890
          12608 12608 8161 8406 10246 8840
          17182 17182 16225 9023 6760 5947
          12808 10722 14099 14121 8810 7897
          10981 10981 8795 7893 9342 15189
          8205 11441 11872 9537 16056 12839
          10284 10919 10594 10424 12805 12805
          11878 11879 10969 11185 5906 5906
          7141 7141 5754 5754 8324 10088
          14641 14643 14061 14061 12184 14180
          10300 7986 16742 16742 13638 13319
          17258 17259 8332 11040 15010 15013
          13104 13104 13496 13496 13986 11751
          12996 12996 14894 14833 10539 11814
          11308 13125 15296 15296 2790 2790
          2035 1858 1935 1935 1727 3347
          2294 1988 2507 2507 1659 2217
          2102 3143 3376 2418 2465 2090
          2420 2060 2420 2060 1288 1298
          1627 4535 1510 1500 2704 2699
          2704 2699 3898 3898 19804 19804
          25420 25420 23259 23259 27677 30619
          23822 23822 19238 19238 26071 21151
          27507 27507 24206 26559 27766 27767
          30076 28448 27748 27748 25225 24731
          22376 31253 23583 23583 23888 24079
          20874 20874 27147 26654 27718 27720
          29240 29240 17879 20334 26817 26823
          27707 25937 24000 24816 19697 20013
          19071 19071 21618 21618 23295 23295
          22689 19771 27045 27202 18572 18572
          29431 29691 25384 25384 24282 24282
          23749 23749 27399 27399 20225 20225
          26415 26616 21543 21543 19707 19707
          21338 24227 27969 27969 26047 26047
          27165 27165 19511 19511 19794 19794
          23554 23554 24050 23856 24604 24604
          20777 23043 23318 23936 22162 22742
          22162 22742 5305 5319 28309 13657
          45242 38861 45944 39257 45944 39257
          46645 39653 46995 42961 46251 46251
          42031 42031 41572 38428 44031 44364
          46093 46093 42880 41195 47284 46344
          44672 44672 44339 44339 43314 43314
          22679 19826 49040 49040 27691 27691
          42082 45720 46611 45142 43781 42980
          44152 44016 40353 42255 42918 40098
          41399 41399 42644 42644 36227 36227
          40555 40555 39067 39857 47797 47797
          39589 39589 48740 48740 41695 43037
          16893 43898 43586 43745 6700 6788
          39007 39007 37893 37893 39208 39208
          47030 47030 43128 43128 42081 40823
          41433 41433 44218 44218 44513 44513
          44936 44935 43907 43439 36767 38050
          39724 39725 37626 37626 37225 43577
          45082 45082 44812 44812 48369 48369
          47084 47084 41117 46520 48539 48551
          47546 47897 39919 45688 39672 40518
          38408 38408 45369 45369 38977 38975
          37634 37634 39222 39852 43915 43413
          36484 36350 44422 44422 44358 45378
          44660 44264 21055 24114 38422 38422
          46728 46728 43469 40975 45357 42467
          45357 42467 67239 59759 91336 91345
          91739 91739 91739 91739 60246 48744
          92017 92016 61067 91797 91887 91887
          58303 58303 92241 92177 91426 91345
          91634 91634 91874 91728 91676 91960
          92093 92094 91249 87861 92212 92218
          77491 91516 91220 91656 91457 91774
          91210 91230 91213 91302 49651 49651
          2790 2790 2037 1860 1932 1932
          1715 3354 2305 2001 2499 2499
          1643 2209 2134 3157 3388 2402
          2451 2082 2406 2052 2406 2052
          1281 1298 1542 4535 1480 1469
          2664 2659 2664 2659 3848 3848
          19715 19715 25599 25599 23502 23502
          27687 30650 23823 23823 19256 19256
          25979 21273 27535 27535 23809 26442
          27766 27767 30035 28611 27631 27631
          25225 24604 22205 31253 23551 23551
          23702 24003 21336 21336 27318 26654
          27639 27743 29240 29240 20664 20664
          26817 26827 27898 26039 23736 24687
          19697 20083 18996 18996 21670 21670
          23218 23218 23670 19461 25783 27202
          18498 18498 29372 29607 25372 25299
          23879 23879 23226 23226 27399 27399
          20513 20513 26128 26763 21579 21579
          19974 19763 22306 24781 28143 28142
          26999 26999 27591 27591 19806 19806
          18931 20305 23732 23732 24050 24055
          24604 24604 20497 23043 23318 24114
          22113 22988 22113 22988 5296 7275
          31737 11816 48958 48958 47466 45501
          47466 45501 45974 42044 46995 41572
          45851 45851 41624 41624 42150 37893
          45502 44364 47369 47369 42036 41063
          47508 47508 45600 45600 44336 44336
          43325 43325 29562 25554 48862 48491
          36196 36210 42049 46504 46611 43590
          44268 42981 44152 42722 39836 42255
          44541 40098 39158 39158 41439 41439
          36133 36133 40954 40954 41339 41339
          48021 48021 39307 39307 48710 45078
          41695 43965 13518 43716 42903 43553
          8746 8746 38252 38252 37117 37117
          40557 40557 44688 44688 42958 42958
          42104 41575 41064 41064 44621 44621
          44511 44511 44935 44935 43569 43981
          36767 39329 39637 39637 37509 37509
          37429 42567 45878 45878 42789 42789
          48114 48114 46023 46023 40815 45831
          48564 48583 46818 47572 39121 45469
          39043 40065 38823 38823 42785 42785
          39270 39267 37552 41537 39223 38148
          43719 43413 36295 36485 46534 46534
          47095 47096 44187 43681 27098 31619
          37778 35965 47029 37330 40846 40468
          40988 40720 40988 40720 41333 41330
          67715 67591 72193 72193 72193 72193
          74294 75789 69965 69966 70014 71981
          71882 71882 75040 75040 76833 76833
          71766 71766 70331 70331 62696 62696
          69258 69935 58944 39006 68629 68940
          67043 72239 67848 67848 69588 71642
          67216 67216 77020 73018 73749 74328
          67767 67247 73445 73445 73222 73222
          64337 64634 63837 63837 75224 75224
          73417 73417 76941 76941 73623 79061
          72575 68296 75080 75080 71164 69900
          67338 74436 77729 77729 73593 73593
          69626 69626 75582 75582 69942 69942
          61876 61260 68658 68657 69816 74688
          78153 78153 75283 75283 74329 68811
          72995 72401 76709 77237 64207 64207
          72206 72206 77451 77451 72566 72566
          73451 73451 68187 68187 62526 62526
          63007 68359 73351 77281 65182 65182
          74613 68598 64576 69796 71442 69606
          65050 65050 79075 79075 79577 79576
          78860 78860 75119 75119 78624 78623
          66604 76029 75102 75102 75809 75814
          77672 74276 75943 73096 77461 77461
          78788 78789 67279 67031 66627 66116
          77507 77507 66493 70813 73032 69123
          66120 64170 73878 73887 65375 66445
          70516 70516 70540 70540 68511 72334
          78029 78029 69935 69935 65260 65260
          74814 77725 74354 74355 69730 69730
          65773 65773 69657 69657 71896 67392
          71451 73288 72881 75804 73353 73353
          68555 63613 65547 65547 64773 65238
          75422 75417 74173 74173 79232 79231
          75711 72691 75711 72691 74504 70449
          59419 61136 58237 60475 56375 57494
          56375 57494 54513 54513 55240 52829
          57272 57365 58258 58258 54199 54199
          52921 52100 53483 53483 59647 59647
          60042 60043 59788 59788 55318 55318
          53466 55465 53754 57485 55658 54072
          56035 56035 55307 55306 56037 54737
          53118 53118 54278 54278 51504 58384
          55280 55886 57606 57607 53905 53171
          57311 57311 57782 57261 58022 58642
          55955 57681 59016 59015 53859 53859
          57755 57064 59821 59821 55353 55353
          58082 58082 52876 52876 61022 61021
          56911 56911 53556 58931 55271 53979
          56520 56342 59285 54616 55794 52354
          59687 59686 56385 56381 57113 55773
          54659 50417 58909 58909 58847 55333
          57513 57513 53010 53010 53147 53147
          55492 49927 58783 59174 53225 53225
          55799 55194 52441 52652 55867 58148
          52820 52820 56393 56355 59635 59635
          52851 52851 54851 54851 57166 57166
          50545 50503 54649 53637 59274 59265
          54573 54573 54514 54514 54588 54712
          51465 51465 52653 52652 54517 54517
          51106 54417 57923 57923 57940 58830
          57829 56551 54112 52948 59725 58671
          60417 60417 59054 59054 59682 59589
          51238 51238 58680 58577 58024 52446
          57608 57590 50962 50962 54604 54639
          59145 59145 56699 56610 60413 60413
          53659 52957 57184 55651 55436 55436
          2790 2790 2031 1855 1939 1939
          1744 3336 2277 1968 2518 2518
          1682 2229 2054 3124 3360 2442
          2485 2101 2441 2071 2441 2071
          1298 1298 1752 4535 1555 1545
          2763 2758 2763 2758 3971 3971
          19934 19934 25157 25157 22903 22903
          27663 30575 23819 23819 19211 19211
          26206 20974 27467 27467 24788 26729
          27766 27767 30136 28209 27920 27920
          25225 24916 22503 30623 23630 23630
          24158 24190 20196 20196 26896 26655
          27718 27719 29240 29240 17879 19805
          26817 26819 27427 25787 24388 25006
          19697 19910 19181 19181 21542 21542
          23408 23408 21251 20226 27496 27497
          18680 18680 29517 29813 25511 25511
          24871 24871 24514 24514 27399 27399
          19803 19803 26195 26195 21491 21491
          19423 19423 19920 23416 28744 28742
          24654 24654 26541 26541 19080 19080
          21068 21068 23294 23294 24037 22873
          24529 24529 21189 23043 23317 23677
          16098 16257 16098 16257 10387 10387
          23290 16352 39058 22059 47381 38165
          47381 38165 46996 44994 46836 46836
          42626 42626 40728 39212 43754 44363
          44225 44225 44440 41249 46801 43839
          43312 43312 44359 44359 43298 43298
          12600 11438 48994 48994 11827 11827
          42131 44572 46483 46483 43068 42980
          42516 40588 41109 42255 40541 40098
          45264 45264 44409 44409 36366 36366
          39971 39971 36345 38085 47467 47467
          40731 40731 47850 47850 41695 41678
          21835 44164 46448 46448 14621 15093
          40112 40112 38537 38537 41251 41209
          48536 48536 43377 43377 42048 39723
          41974 41974 43629 43629 44514 44514
          44937 44937 44225 42686 38275 38887
          39723 39724 37798 37798 38757 41240
          43480 43970 47089 47089 48742 48742
          47598 47598 42650 46338 48502 48503
          48179 48178 41844 45774 40595 41181
          38223 38223 45370 45370 39523 39522
          38190 38190 39221 42346 44202 43412
          36761 36151 41159 41914 38797 41369
          45353 45117 12207 13124 39783 39783
          47028 47028 42174 42174 41638 41637
          41638 41637 41334 41333 64565 64583
          75480 75480 76795 76795 76795 76795
          79424 79424 72472 74049 72397 72393
          73323 73323 78193 67840 77484 77483
          73086 73086 72250 72250 43132 43132
          70398 70398 65587 42576 66097 66097
          79719 79718 66513 66513 69879 72150
          71837 71837 77385 77387 77231 77231
          49698 66719 72550 72550 76310 76310
          67646 65350 64152 64152 69732 67738
          71999 71999 71836 79206 70724 70865
          72782 71859 74891 74891 72985 72985
          74382 74382 77813 77813 68214 68214
          74985 74985 67511 67789 74895 74886
          62632 61310 68668 68667 69351 69466
          78151 78151 70035 70035 75181 68504
          66770 66770 77188 77238 69541 69541
          75308 75308 78799 78799 76702 76702
          75903 72389 65543 65543 65309 65309
          69927 71810 79878 79878 65247 65247
          78473 75080 63118 69798 71764 68838
          63637 63637 79016 77846 75866 75866
          69684 69684 69248 66597 75683 75685
          78665 77365 71612 71612 75806 66367
          71652 69970 70843 70143 73414 73414
          66994 70862 77267 71709 62954 67079
          78876 68491 64791 64791 72301 72301
          62778 69707 67168 67168 66116 69435
          65564 65564 71517 75212 74618 74618
          75069 75069 76634 76634 69902 69902
          73962 73960 76289 76289 69670 69670
          65775 65775 63605 63075 71054 70786
          74236 75585 67892 69015 69318 69318
          66676 66676 68764 68764 66775 66775
          77197 77197 76999 76999 78147 78147
          65189 77984 62267 76125 62267 76125
          53484 70536 70157 70157 50590 70069
          50590 70069 87993 85906 83478 83716
          81835 81835 85094 86838 86464 82915
          89516 89516 84347 82279 86427 83788
          89827 82899 87129 87129 85317 85317
          83070 83070 87304 90417 87616 83038
          89808 89807 84912 84912 81490 81490
          82263 82263 63529 72532 57858 57858
          85546 84049 88238 88238 84285 89600
          81540 82730 84516 88268 85926 86202
          85450 85450 84332 84330 87999 86762
          87048 87051 89488 90179 81287 81844
          83117 83117 84730 84730 83225 83225
          81219 83052 85222 84817 87892 88248
          81769 81769 89253 89252 84277 84277
          86021 86021 85496 85297 86729 86729
          86335 86335 86809 86347 86153 86153
          85774 82387 86779 87569 87682 87682
          90353 90353 89424 83440 84878 83913